_chemical_name_common                  'SIFSIX_1_Cu                           '
_cell_length_a                         11.04500
_cell_length_b                         11.04500
_cell_length_c                         8.16300
_cell_angle_alpha                      90
_cell_angle_beta                       90
_cell_angle_gamma                      90
_symmetry_space_group_name_H-M         P 1
_symmetry_Int_Tables_number            1

loop_
_symmetry_equiv_pos_as_xyz
x,y,z

_cell_measurement_temperature    100
_diffrn_ambient_temperature      100

loop_
   _atom_site_label
   _atom_site_type_symbol
   _atom_site_occupancy
   _atom_site_fract_x
   _atom_site_fract_y
   _atom_site_fract_z
	_atom_site_U_iso_or_equiv
   C1   C      1.0     0.257311      0.457585      0.368999 0.0286
   C2   C      1.0     0.131594      0.456767      0.364768 0.0336
   C1   C      1.0     0.742689      0.542415      0.368999 0.0286
   C2   C      1.0     0.868406      0.543233      0.364768 0.0336
   C1   C      1.0     0.542415      0.257311      0.368999 0.0286
   C2   C      1.0     0.543233      0.131594      0.364768 0.0336
   C1   C      1.0     0.457585      0.742689      0.368999 0.0286
   C2   C      1.0     0.456767      0.868406      0.364768 0.0336
   C1   C      1.0     0.742689      0.457585      0.631001 0.0286
   C2   C     1.0     0.868406      0.456767      0.635232 0.0336
   C1   C     1.0     0.257311      0.542415      0.631001 0.0286
   C2   C     1.0     0.131594      0.543233      0.635232 0.0336
   C1   C     1.0     0.457585      0.257311      0.631001 0.0286
   C2   C     1.0     0.456767      0.131594      0.635232 0.0336
   C1   C     1.0     0.542415      0.742689      0.631001 0.0286
   C2   C     1.0     0.543233      0.868406      0.635232 0.0336
   C3   C     1.0     0.066663      0.500000      0.500000 0.0198
   C3   C     1.0     0.933337      0.500000      0.500000 0.0198
   C3   C     1.0     0.500000      0.066663      0.500000 0.0198
   C3   C     1.0     0.500000      0.933337      0.500000 0.0198
   H1   H      1.0     0.311480      0.425621      0.265696 0.034
   H2   H      1.0     0.084922      0.420684      0.257838 0.034
   H3   H      1.0     0.688520      0.574379      0.265696 0.034
   H4   H      1.0     0.915078      0.579316      0.257838 0.034
   H5   H      1.0     0.574379      0.311480      0.265696 0.034
   H6   H      1.0     0.579316      0.084922      0.257838 0.034
   H7   H      1.0     0.425621      0.688520      0.265696 0.034
   H8   H      1.0     0.420684      0.915078      0.257838 0.034
   H9   H      1.0     0.688520      0.425621      0.734304 0.034 
   H10  H      1.0     0.915078      0.420684      0.742162 0.034
   H11  H      1.0     0.311480      0.574379      0.734304 0.034 
   H12  H      1.0     0.084922      0.579316      0.742162 0.034
   H13  H      1.0     0.425621      0.311480      0.734304 0.034
   H14  H      1.0     0.420684      0.084922      0.742162 0.034
   H15  H      1.0     0.574379      0.688520      0.734304 0.034
   H16  H      1.0     0.579316      0.915078      0.742162 0.034
   Cu1  Cu      1.0     0.500000      0.500000      0.500000 0.0116
   Si1  Si      1.0     0.500000      0.500000      0.000000 0.0141
   F1   F      1.0     0.500000      0.500000      0.785058 0.0174
   F2   F      1.0     0.500000      0.500000      0.214942 0.0174
   F3   F      1.0     0.390352      0.390352      0.000000 0.0174
   F4   F      1.0     0.609648      0.609648      0.000000 0.0174
   F3   F      1.0     0.609648      0.390352      0.000000 0.0174
   F4   F      1.0     0.390352      0.609648      0.000000 0.0174
   N1   N      1.0     0.318061      0.500000      0.500000 0.0174
   N1   N      1.0     0.681939      0.500000      0.500000 0.0174
   N1   N      1.0     0.500000      0.318061      0.500000 0.0174
   N1   N      1.0     0.500000      0.681939      0.500000 0.0174
   
   
loop_
_atom_site_aniso_label
_atom_site_aniso_U_11
_atom_site_aniso_U_22
_atom_site_aniso_U_33
_atom_site_aniso_U_23
_atom_site_aniso_U_13
_atom_site_aniso_U_12
Cu1 0.00484 0.00484 0.02517 0.000 0.000 0.000
Si1 0.01178 0.01178 0.018913 0.000 0.000 0.000
F1 0.016212 0.016212 0.0202 0.000 0.000 0.000
F2 0.0145 0.0145 0.0395 0.000 0.000 -0.0016
F3 0.0114 0.0134 0.0243 0.000 0.000 0.0005
F4 0.0149 0.0108 0.0287 0.000 0.000 0.000
N1 0.010418 0.009518 0.0262 0.000 0.000 0.000
C1 0.0162 0.0443 0.0262 -0.0112 0.0032 -0.004419
C2 0.0152 0.0554 0.0313 -0.0152 -0.0052 -0.0062
C3 0.0112 0.0222 0.0273 0.000 0.000 0.000

