_chemical_name_common                  'SIFSIX_2_Cu                           '
_cell_length_a                         13.63160
_cell_length_b                         13.63160
_cell_length_c                         7.96800
_cell_angle_alpha                      90
_cell_angle_beta                       90
_cell_angle_gamma                      90
_symmetry_space_group_name_H-M         P 1
_symmetry_Int_Tables_number            1

_cell_measurement_temperature    100
_diffrn_ambient_temperature      100

loop_
_symmetry_equiv_pos_as_xyz
x,y,z

loop_
   _atom_site_label
   _atom_site_type_symbol
   _atom_site_fract_x
   _atom_site_fract_y
   _atom_site_fract_z 
	_atom_site_U_iso_or_equiv
   C1         C     0.531242      0.697564      0.136446 0.0509
   C2         C     0.532527      0.799121      0.141096 0.0599
   C1         C     0.468758      0.302436      0.136446 0.0509
   C2         C     0.467473      0.200878      0.141096 0.0599
   C1         C     0.302436      0.531242      0.136446 0.0509
   C2         C     0.200878      0.532527      0.141096 0.0599
   C1         C     0.697564      0.468758      0.136446 0.0509
   C2         C     0.799121      0.467473      0.141096 0.0599
   C1         C     0.468758      0.697564      0.863554 0.0509
   C2        C     0.467473      0.799121      0.858904 0.0599
   C1        C     0.531242      0.302436      0.863554 0.0509
   C2        C     0.532527      0.200878      0.858904 0.0599
   C1        C     0.697564      0.531242      0.863554 0.0509
   C2        C     0.799121      0.532527      0.858904 0.0599
   C1        C     0.302436      0.468758      0.863554 0.0509
   C2        C     0.200878      0.467473      0.858904 0.0599
   C4        C     0.500000      0.148117      0.000000 0.0563
   C3        C     0.500000      0.044631      0.000000 0.0688
   C4        C     0.500000      0.851883      0.000000 0.0563
   C3        C     0.500000      0.955369      0.000000 0.0688
   C4        C     0.851883      0.500000      0.000000 0.0563
   C3        C     0.955369      0.500000      0.000000 0.0688
   C4        C     0.148117      0.500000      0.000000 0.0563
   C3        C     0.044631      0.500000      0.000000 0.0688
   H1         H     0.554770      0.654354      0.244409 0.061
   H1         H     0.558317      0.836961      0.252994 0.061
   H1         H     0.445230      0.345646      0.244409 0.061
   H1         H     0.441683      0.163039      0.252994 0.061
   H1         H     0.345646      0.554770      0.244409 0.061
   H1         H     0.163039      0.558317      0.252994 0.061
   H1         H     0.654354      0.445230      0.244409 0.061
   H1         H     0.836961      0.441683      0.252994 0.061
   H1         H     0.445230      0.654354      0.755591 0.061
   H1        H     0.441683      0.836961      0.747006 0.061
   H1        H     0.554770      0.345646      0.755591 0.061
   H1        H     0.558317      0.163039      0.747006 0.061
   H1        H     0.654354      0.554770      0.755591 0.061
   H1        H     0.836961      0.558317      0.747006 0.061
   H1        H     0.345646      0.445230      0.755591 0.061
   H1        H     0.163039      0.441683      0.747006 0.061
   Cu1        Cu     0.500000      0.500000      0.00000 0.0340
   Si1        Si     0.500000      0.500000      0.50000 0.0390
   F1         F     0.500000      0.500000      0.717971 0.042
   F2         F     0.500000      0.500000      0.282029 0.052
   F3         F     0.588894      0.588894      0.500000 0.0448
   F1         F     0.411106      0.588894      0.500000 0.042
   F2         F     0.411106      0.411106      0.500000 0.052
   F3         F     0.588894      0.411106      0.500000 0.0448
   N1         N     0.500000      0.351922      0.000000 0.0412
   N1         N     0.500000      0.648078      0.000000 0.0412
   N1         N     0.648078      0.500000      0.000000 0.0412
   N1         N     0.351922      0.500000      0.000000 0.0412
   
   
loop_
_atom_site_aniso_label
_atom_site_aniso_U_11
_atom_site_aniso_U_22
_atom_site_aniso_U_33
_atom_site_aniso_U_23
_atom_site_aniso_U_13
_atom_site_aniso_U_12
Cu1 0.03144 0.03144 0.03935 0.000 0.000 0.000
Si1 0.03886 0.03886 0.03949 0.000 0.000 0.000
F3 0.046210 0.046210 0.042115 0.000 0.000 0.000
C4 0.0723 0.032119 0.0652 0.000 0.000 0.000
N1 0.048417 0.030114 0.044913 0.000 0.000 0.000
F1 0.053 0.0304 0.0473 0.000 0.000 -0.0059
F2 0.04517 0.063 0.0563 0.000 0.000 0.002
C3 0.0964 0.040219 0.0702 0.000 0.000 0.000
C1 0.0592 0.0442 0.050018 0.001214 -0.008713 -0.004315
C2 0.0823 0.0432 0.0542 -0.004715 -0.007316 -0.011417
