data_SIFSIX_2_Cu_i
_audit_creation_date              2020-07-17
_audit_creation_method            'Materials Studio'
_symmetry_space_group_name_H-M    'P1'
_symmetry_Int_Tables_number       1
_symmetry_cell_setting            triclinic
loop_
_symmetry_equiv_pos_as_xyz
  x,y,z
_cell_length_a                    13.6490
_cell_length_b                    13.6490
_cell_length_c                    8.0920
_cell_angle_alpha                 90.0000
_cell_angle_beta                  90.0000
_cell_angle_gamma                 90.0000
_diffrn_ambient_temperature      100
_cell_measurement_temperature    100

loop_
_atom_site_label
_atom_site_type_symbol
_atom_site_fract_x
_atom_site_fract_y
_atom_site_fract_z
_atom_site_U_iso_or_equiv
_atom_site_adp_type
_atom_site_occupancy
C7  C7    0.00000   0.29965   0.35068   0.01267  Uiso   1.00
C9  C9    0.00000   0.19818   0.35580   0.01267  Uiso   1.00
C7  C7    0.50000   0.79965   0.85068   0.01267  Uiso   1.00
C9  C9    0.50000   0.69818   0.85580   0.01267  Uiso   1.00
C7  C7    0.00000   0.70035   0.35068   0.01267  Uiso   1.00
C9  C9    0.00000   0.80182   0.35580   0.01267  Uiso   1.00
C7  C7    0.50000   0.20035   0.85068   0.01267  Uiso   1.00
C9  C9    0.50000   0.30182   0.85580   0.01267  Uiso   1.00
C7  C7    0.70035   0.00000   0.35068   0.01267  Uiso   1.00
C9  C9    0.80182   0.00000   0.35580   0.01267  Uiso   1.00
C7  C7    0.20035   0.50000   0.85068   0.01267  Uiso   1.00
C9  C9    0.30182   0.50000   0.85580   0.01267  Uiso   1.00
C7  C7    0.29965   0.00000   0.35068   0.01267  Uiso   1.00
C9  C9    0.19818   0.00000   0.35580   0.01267  Uiso   1.00
C7  C7    0.79965   0.50000   0.85068   0.01267  Uiso   1.00
C9  C9    0.69818   0.50000   0.85580   0.01267  Uiso   1.00
C7  C7    0.00000   0.29965   0.64932   0.01267  Uiso   1.00
C9  C9    0.00000   0.19818   0.64420   0.01267  Uiso   1.00
C7  C7    0.50000   0.79965   0.14932   0.01267  Uiso   1.00
C9  C9    0.50000   0.69818   0.14420   0.01267  Uiso   1.00
C7  C7    0.00000   0.70035   0.64932   0.01267  Uiso   1.00
C9  C9    0.00000   0.80182   0.64420   0.01267  Uiso   1.00
C7  C7    0.50000   0.20035   0.14932   0.01267  Uiso   1.00
C9  C9    0.50000   0.30182   0.14420   0.01267  Uiso   1.00
C7  C7    0.29965   0.00000   0.64932   0.01267  Uiso   1.00
C9  C9    0.19818   0.00000   0.64420   0.01267  Uiso   1.00
C7  C7    0.79965   0.50000   0.14932   0.01267  Uiso   1.00
C9  C9    0.69818   0.50000   0.14420   0.01267  Uiso   1.00
C7  C7    0.70035   0.00000   0.64932   0.01267  Uiso   1.00
C9  C9    0.80182   0.00000   0.64420   0.01267  Uiso   1.00
C7  C7    0.20035   0.50000   0.14932   0.01267  Uiso   1.00
C9  C9    0.30182   0.50000   0.14420   0.01267  Uiso   1.00
C5   C5     0.00000   0.45542   0.50000   0.01267  Uiso   1.00
C8  C8    0.00000   0.35227   0.50000   0.01267  Uiso   1.00
C5   C5     0.50000   0.95542   0.00000   0.01267  Uiso   1.00
C5   C5     0.50000   0.85227   0.00000   0.01267  Uiso   1.00
C5   C5     0.00000   0.54458   0.50000   0.01267  Uiso   1.00
C8  C8    0.00000   0.64773   0.50000   0.01267  Uiso   1.00
C5   C5     0.50000   0.04458   0.00000   0.01267  Uiso   1.00
C5   C5     0.50000   0.14773   0.00000   0.01267  Uiso   1.00
C5   C5     0.54458   0.00000   0.50000   0.01267  Uiso   1.00
C8  C8    0.64773   0.00000   0.50000   0.01267  Uiso   1.00
C5   C5     0.04458   0.50000   0.00000   0.01267  Uiso   1.00
C8  C8    0.14773   0.50000   0.00000   0.01267  Uiso   1.00
C5   C5     0.45542   0.00000   0.50000   0.01267  Uiso   1.00
C8  C8    0.35227   0.00000   0.50000   0.01267  Uiso   1.00
C5   C5     0.95542   0.50000   0.00000   0.01267  Uiso   1.00
C8  C8    0.85227   0.50000   0.00000   0.01267  Uiso   1.00
H   H     0.00000   0.33742   0.23220   0.01267  Uiso   1.00
H   H     0.00000   0.15511   0.24257   0.01267  Uiso   1.00
H   H     0.50000   0.83742   0.73220   0.01267  Uiso   1.00
H   H     0.50000   0.65511   0.74257   0.01267  Uiso   1.00
H   H     0.00000   0.66258   0.23220   0.01267  Uiso   1.00
H   H     0.00000   0.84489   0.24257   0.01267  Uiso   1.00
H   H     0.50000   0.16258   0.73220   0.01267  Uiso   1.00
H   H     0.50000   0.34489   0.74257   0.01267  Uiso   1.00
H   H     0.66258   0.00000   0.23220   0.01267  Uiso   1.00
H   H     0.84489   0.00000   0.24257   0.01267  Uiso   1.00
H   H     0.16258   0.50000   0.73220   0.01267  Uiso   1.00
H   H     0.34489   0.50000   0.74257   0.01267  Uiso   1.00
H   H     0.33742   0.00000   0.23220   0.01267  Uiso   1.00
H   H     0.15511   0.00000   0.24257   0.01267  Uiso   1.00
H   H     0.83742   0.50000   0.73220   0.01267  Uiso   1.00
H   H     0.65511   0.50000   0.74257   0.01267  Uiso   1.00
H   H     0.00000   0.33742   0.76780   0.01267  Uiso   1.00
H   H     0.00000   0.15511   0.75743   0.01267  Uiso   1.00
H   H     0.50000   0.83742   0.26780   0.01267  Uiso   1.00
H   H     0.50000   0.65511   0.25743   0.01267  Uiso   1.00
H   H     0.00000   0.66258   0.76780   0.01267  Uiso   1.00
H   H     0.00000   0.84489   0.75743   0.01267  Uiso   1.00
H   H     0.50000   0.16258   0.26780   0.01267  Uiso   1.00
H   H     0.50000   0.34489   0.25743   0.01267  Uiso   1.00
H   H     0.33742   0.00000   0.76780   0.01267  Uiso   1.00
H   H     0.15511   0.00000   0.75743   0.01267  Uiso   1.00
H   H     0.83742   0.50000   0.26780   0.01267  Uiso   1.00
H   H     0.65511   0.50000   0.25743   0.01267  Uiso   1.00
H   H     0.66258   0.00000   0.76780   0.01267  Uiso   1.00
H   H     0.84489   0.00000   0.75743   0.01267  Uiso   1.00
H   H     0.16258   0.50000   0.26780   0.01267  Uiso   1.00
H   H     0.34489   0.50000   0.25743   0.01267  Uiso   1.00
Cu  Cu    0.00000   0.00000   0.50000   0.01267  Uiso   1.00
Cu  Cu    0.50000   0.50000   0.00000   0.01267  Uiso   1.00
Si  Si    0.00000   0.00000   0.00000   0.01267  Uiso   1.00
Si  Si    0.50000   0.50000   0.50000   0.01267  Uiso   1.00
N   N     0.00000   0.14841   0.50000   0.01267  Uiso   1.00
N   N     0.50000   0.64841   0.00000   0.01267  Uiso   1.00
N   N     0.00000   0.85159   0.50000   0.01267  Uiso   1.00
N   N     0.50000   0.35159   0.00000   0.01267  Uiso   1.00
N   N     0.85159   0.00000   0.50000   0.01267  Uiso   1.00
N   N     0.35159   0.50000   0.00000   0.01267  Uiso   1.00
N   N     0.14841   0.00000   0.50000   0.01267  Uiso   1.00
N   N     0.64841   0.50000   0.00000   0.01267  Uiso   1.00
F   F3     0.00000   0.00000   0.78465   0.01267  Uiso   1.00
F   F3     0.50000   0.50000   0.28465   0.01267  Uiso   1.00
F   F3     0.00000   0.00000   0.21535   0.01267  Uiso   1.00
F   F3     0.50000   0.50000   0.71535   0.01267  Uiso   1.00
F   F     0.58849   0.58849   0.50000   0.01267  Uiso   1.00
F   F     0.58849   0.41152   0.50000   0.01267  Uiso   1.00
F   F     0.41152   0.58849   0.50000   0.01267  Uiso   1.00
F   F     0.41152   0.41152   0.50000   0.01267  Uiso   1.00
F   F     0.08849   0.08849   0.00000   0.01267  Uiso   1.00
F   F     0.91152   0.91152   0.00000   0.01267  Uiso   1.00
F   F     0.91152   0.08849   0.00000   0.01267  Uiso   1.00
F   F     0.08849   0.91152   0.00000   0.01267  Uiso   1.00


loop_
_atom_site_aniso_label
_atom_site_aniso_U_11
_atom_site_aniso_U_22
_atom_site_aniso_U_33
_atom_site_aniso_U_23
_atom_site_aniso_U_13
_atom_site_aniso_U_12
C7 0.1547 0.0312 0.0423 0.0042 0.000 0.000
C9 0.1638 0.0302 0.0423 -0.0042 0.000 0.000
O 0.0577 0.0728 0.0748 0.000 0.000 -0.0186
Cu 0.01744 0.01744 0.02907 0.000 0.000 0.000
Si 0.035910 0.035910 0.020715 0.000 0.000 0.000
N 0.027419 0.019117 0.0292 0.000 0.000 0.000
C5 0.0524 0.0323 0.0454 0.000 0.000 0.000
C8 0.0463 0.0283 0.0483 0.000 0.000 0.000
F3 0.041315 0.041315 0.0212 0.000 0.000 0.000
F 0.0305 0.063 0.0295 0.000 0.000 -0.0049
